# vtk DataFile Version 5.1
vtk output
ASCII
DATASET POLYDATA
POINTS 5000 float
4 0 0 3.99319 -0.000958234 0.129659 3.97438 -0.000783408 0.257473 
3.94422 0.00154979 0.381833 3.90049 -0.000251962 0.500034 3.84986 3.36537e-05 0.612534 
3.79318 0.00267668 0.718644 3.72708 0.00277008 0.8145 3.65867 0.00311914 0.902913 
3.58855 0.00204876 0.983113 3.51523 0.000470864 1.05167 3.44466 0.00323833 1.11278 
3.37789 0.00108709 1.16639 3.31354 0.00225426 1.20869 3.25812 0.00218261 1.2474 
3.20754 0.00244751 1.27453 3.16739 0.000958364 1.29781 3.13626 0.00148884 1.31356 
3.11686 0.00208759 1.32594 3.10654 0.00129547 1.3289 3.10816 0.00312305 1.32783 
3.12201 0.00232089 1.32336 3.14525 0.00373705 1.3103 3.1796 0.00190285 1.29283 
3.22294 0.001843 1.26813 3.2749 0.0030196 1.23694 3.33314 0.00431532 1.19707 
3.39687 0.00328368 1.14918 3.46638 0.00188021 1.09511 3.53872 0.00357567 1.0325 
3.60902 0.00490394 0.958096 3.68096 0.00249243 0.877245 3.747 0.00437342 0.785163 
3.80997 0.00511661 0.685856 3.8676 0.00302068 0.579094 3.91398 0.00414742 0.463798 
3.95505 0.00509856 0.343952 3.98173 0.0064929 0.218304 3.99697 0.0059483 0.0897056 
3.99873 0.00467726 -0.0401915 3.98728 0.00455489 -0.169312 3.9651 0.00477136 -0.296154 
3.93269 0.00706051 -0.419397 3.88622 0.00528019 -0.535825 3.8341 0.00540805 -0.646769 
3.77163 0.0068768 -0.748246 3.70777 0.00609069 -0.844021 3.63801 0.00747787 -0.929526 
3.56618 0.0074435 -1.00578 3.49435 0.00663641 -1.07297 3.42393 0.00579444 -1.1308 
3.35685 0.00572076 -1.17973 3.29518 0.00665179 -1.22083 3.24095 0.00807011 -1.25563 
3.19519 0.00677966 -1.28441 3.15643 0.00759434 -1.30298 3.12873 0.00742874 -1.31731 
3.11259 0.00604047 -1.32768 3.10568 0.00659945 -1.3288 3.11152 0.00823259 -1.3275 
3.12745 0.0060131 -1.31859 3.15453 0.00602515 -1.30482 3.19202 0.00842448 -1.28561 
3.23809 0.00645097 -1.2588 3.29146 0.0067113 -1.22387 3.35194 0.00778902 -1.18218 
3.41803 0.00892724 -1.13302 3.48806 0.0098091 -1.07571 3.56001 0.0103186 -1.00951 
3.63161 0.0106102 -0.933754 3.70086 0.00970381 -0.848487 3.76957 0.00878918 -0.756505 
3.82847 0.00922566 -0.653152 3.88332 0.00889684 -0.543817 3.92714 0.0119868 -0.426681 
3.96225 0.00973592 -0.304476 3.9856 0.00997041 -0.177979 3.99566 0.0113834 -0.0489327 
3.99469 0.0134414 0.0807099 3.98175 0.0140357 0.209418 3.95492 0.0140442 0.334962 
3.91754 0.0110708 0.456043 3.8696 0.0132944 0.570855 3.81485 0.0110993 0.679338 
3.75156 0.0118473 0.77883 3.68576 0.0139205 0.871511 3.6134 0.0120802 0.952489 
3.54279 0.0109508 1.0271 3.47208 0.0119507 1.09228 3.40281 0.0130301 1.14767 
3.33723 0.0133242 1.1941 3.27747 0.0128612 1.23276 3.22514 0.0125434 1.26455 
3.18164 0.0129132 1.29039 3.14741 0.0105366 1.30968 3.12325 0.011368 1.32272 
3.10856 0.0117957 1.32734 3.10704 0.0124515 1.33046 3.1152 0.010539 1.32495 
3.13566 0.0118338 1.31641 3.16555 0.0108797 1.29986 3.2059 0.0121496 1.27835 
3.25358 0.0134933 1.24763 3.31089 0.0117451 1.213 3.37249 0.0140687 1.16776 
3.44133 0.0129215 1.11766 3.51008 0.0139421 1.05508 3.58378 0.0152982 0.987545 
3.65502 0.0134207 0.908761 3.72339 0.013644 0.820596 3.78952 0.0144785 0.725007 
3.84651 0.0172992 0.619265 3.89808 0.0180629 0.507318 3.94116 0.0153361 0.389017 
3.97336 0.0169785 0.265242 3.99254 0.0166028 0.137466 3.99777 0.0162196 0.0078041 
3.99091 0.0179902 -0.121654 3.97316 0.0191207 -0.249433 3.94329 0.0179063 -0.373719 
3.90581 0.0184517 -0.494215 3.85522 0.0173401 -0.607209 3.79548 0.0198549 -0.711951 
3.73075 0.019336 -0.808974 3.66346 0.0194041 -0.898689 3.59187 0.0163791 -0.978033 
3.5194 0.0190158 -1.04801 3.44881 0.0159539 -1.10978 3.38138 0.0183263 -1.16334 
3.31699 0.0162755 -1.20649 3.26108 0.016261 -1.24548 3.21081 0.0177732 -1.27437 
3.16946 0.0176171 -1.29685 3.13873 0.0163809 -1.31481 3.1172 0.017469 -1.32449 
3.10713 0.0150044 -1.32946 3.10786 0.0172571 -1.32815 3.12076 0.0153325 -1.32324 
3.14417 0.0162189 -1.31192 3.17645 0.0165963 -1.29191 3.21937 0.0177884 -1.26777 
3.2706 0.0176737 -1.23653 3.32933 0.0169427 -1.1984 3.39452 0.0170528 -1.15325 
3.46375 0.0188489 -1.09933 3.53416 0.0207937 -1.03508 3.60489 0.0197331 -0.961568 
3.67801 0.0197533 -0.882085 3.74369 0.0205155 -0.789936 3.80685 0.0220392 -0.690962 
3.86463 0.0203698 -0.584453 3.91159 0.0225785 -0.469525 3.95268 0.0215629 -0.349806 
3.98059 0.0223244 -0.224492 3.99476 0.0219719 -0.0958513 3.99603 0.0237246 0.0338627 
3.98737 0.0257402 0.163085 3.96609 0.0260275 0.290132 3.93131 0.0247293 0.412678 
3.89059 0.024488 0.531366 3.83757 0.0245891 0.642234 3.77495 0.02278 0.743942 
3.71089 0.0227853 0.839871 3.64111 0.0227 0.925713 3.56861 0.0216658 1.00169 
3.4957 0.0223178 1.06805 3.42639 0.0238259 1.12764 3.36076 0.0219776 1.17917 
3.29809 0.0206127 1.21967 3.24328 0.0227583 1.25444 3.19657 0.0200306 1.28254 
3.1589 0.0214559 1.30417 3.13069 0.0203072 1.31873 3.11282 0.0221053 1.32691 
3.10617 0.0196903 1.3297 3.11089 0.0222479 1.32735 3.12634 0.0204498 1.31862 
3.15274 0.0212578 1.30465 3.1903 0.0207172 1.28653 3.23506 0.02261 1.2584 
3.28985 0.0237616 1.22654 3.3509 0.022833 1.18615 3.41629 0.0222898 1.13639 
3.48506 0.0231475 1.07795 3.55629 0.0246935 1.01139 3.62803 0.025644 0.936174 
3.69838 0.0252127 0.852074 3.76732 0.0262771 0.760418 3.82624 0.0263735 0.657177 
3.88089 0.0264683 0.54787 3.92647 0.0302493 0.431456 3.9602 0.0290601 0.308887 
3.98392 0.0300187 0.182559 3.99713 0.0315858 0.0537344 3.99772 0.029984 -0.0761924 
3.9829 0.0285831 -0.204926 3.95705 0.028613 -0.330835 3.92113 0.0309353 -0.452631 
3.8726 0.028419 -0.567518 3.81842 0.0289755 -0.67661 3.75432 0.0280977 -0.77592 
3.68812 0.0304857 -0.86859 3.61586 0.0295818 -0.949943 3.54387 0.028046 -1.02346 
3.47262 0.0272307 -1.08823 3.40361 0.0267323 -1.14418 3.33853 0.026393 -1.19168 
3.27899 0.0263369 -1.2312 3.22658 0.0269501 -1.26353 3.18332 0.0269211 -1.29053 
3.14744 0.0253393 -1.3075 3.12271 0.0253449 -1.32021 3.10974 0.0247629 -1.32911 
3.10609 0.0264111 -1.3288 3.11521 0.0246842 -1.32606 3.13488 0.0260451 -1.31677 
3.16408 0.0250558 -1.29965 3.20402 0.0254057 -1.27808 3.25313 0.0275424 -1.25036 
3.30799 0.0282423 -1.21239 3.3718 0.0273958 -1.17071 3.43802 0.03019 -1.11759 
3.50951 0.028459 -1.05846 3.58016 0.0315155 -0.987997 3.65361 0.0314685 -0.911482 
3.72247 0.030696 -0.823735 3.78809 0.0320573 -0.727836 3.84497 0.0346544 -0.622081 
3.89738 0.0357768 -0.510538 3.93882 0.0331072 -0.391706 3.97123 0.0334845 -0.268122 
3.98957 0.03427 -0.140401 3.99675 0.0371302 -0.0109922 3.99411 0.0373288 0.118793 
3.97675 0.0357206 0.246992 3.94724 0.0362033 0.37175 3.90412 0.0373431 0.490454 
3.85599 0.0372762 0.60449 3.79589 0.0355147 0.70909 3.73179 0.0354316 0.806614 
3.66501 0.0358862 0.896893 3.59252 0.0327858 0.975573 3.52206 0.0339494 1.04787 
3.44961 0.0339798 1.10785 3.38187 0.031196 1.16118 3.31954 0.0314317 1.20767 
3.26176 0.0326052 1.24425 3.21132 0.0322625 1.27324 3.17035 0.0319514 1.29686 
3.13882 0.0292719 1.31379 3.11783 0.0294823 1.32506 3.10708 0.0315162 1.32927 
3.10796 0.0291152 1.32871 3.12064 0.0309579 1.32391 3.14361 0.0311885 1.31218 
3.1757 0.0311288 1.29222 3.21894 0.0329809 1.269 3.27037 0.0336036 1.23835 
3.32864 0.0342958 1.1997 3.39253 0.0347862 1.15299 3.46072 0.034845 1.0981 
3.53195 0.0344735 1.03505 3.60514 0.0347152 0.964078 3.67653 0.0382121 0.883119 
3.74329 0.0364282 0.791787 3.80577 0.0386205 0.692385 3.86367 0.0378332 0.585967 
3.91105 0.0410534 0.471225 3.95063 0.0391763 0.351072 3.97808 0.0397642 0.225817 
3.99275 0.0421082 0.0974054 3.99846 0.043636 -0.0322762 3.98966 0.0412434 -0.161772 
3.96676 0.0405264 -0.28872 3.93449 0.0410667 -0.412173 3.8884 0.0431274 -0.528938 
3.83612 0.0430771 -0.639996 3.77696 0.039583 -0.743774 3.71173 0.0403868 -0.839094 
3.6417 0.0391068 -0.924836 3.5685 0.0379581 -1.00023 3.49669 0.0398756 -1.06791 
3.42792 0.037474 -1.12834 3.35965 0.0370341 -1.17652 3.29947 0.037459 -1.2208 
3.24325 0.0354902 -1.25352 3.19727 0.0353442 -1.28309 3.15905 0.0359035 -1.30396 
3.13045 0.0339159 -1.31796 3.11322 0.0345926 -1.32761 3.10587 0.0360701 -1.32926 
3.11075 0.0338584 -1.32733 3.12709 0.0347476 -1.32055 3.15292 0.0344666 -1.30555 
3.19014 0.0355113 -1.28693 3.23483 0.0376927 -1.25877 3.28986 0.0373947 -1.2273 
3.34937 0.0370191 -1.18474 3.41494 0.0399878 -1.13544 3.4859 0.0410944 -1.07965 
3.55784 0.040237 -1.01362 3.62911 0.0404586 -0.937725 3.69959 0.0414991 -0.853547 
3.76686 0.0447034 -0.760614 3.82636 0.0432953 -0.657669 3.88049 0.0441006 -0.548061 
3.9271 0.0479796 -0.431988 3.96074 0.0484776 -0.309283 3.98568 0.0492789 -0.183013 
3.99855 0.0473501 -0.0539374 3.99454 0.0469514 0.075913 3.98101 0.0495906 0.204583 
3.95609 0.0499145 0.330596 3.91788 0.0481447 0.451535 3.87385 0.0484744 0.568214 
3.81765 0.0486386 0.676357 3.75554 0.0453943 0.776974 3.68715 0.0474842 0.868104 
3.61555 0.0458873 0.950004 3.54361 0.0448763 1.0236 3.47241 0.044531 1.08844 
3.40376 0.0442274 1.14489 3.33924 0.0434093 1.19326 3.2801 0.0416998 1.2335 
3.22702 0.0396303 1.26478 3.18221 0.0413667 1.28904 3.14748 0.0389528 1.30802 
3.12251 0.039698 1.3202 3.1091 0.0384544 1.32808 3.10689 0.0403763 1.33058 
3.11444 0.0406546 1.32455 3.13382 0.0407521 1.31456 3.16493 0.0405744 1.30092 
3.20465 0.040561 1.27873 3.25334 0.0424125 1.2501 3.30861 0.0439558 1.21264 
3.37104 0.0425446 1.16884 3.4398 0.044554 1.11888 3.50873 0.0467212 1.05666 
3.58175 0.0453102 0.988501 3.65212 0.0490077 0.909159 3.7232 0.0497189 0.823185 
3.7884 0.0507205 0.7269 3.84493 0.0515865 0.620886 3.8978 0.053475 0.5095 
3.93825 0.0516447 0.390289 3.96967 0.0521183 0.266518 3.98919 0.054781 0.139038 
3.99945 0.0548914 0.00962739 3.99234 0.0525291 -0.120082 3.97292 0.0542576 -0.247779 
3.94331 0.0543246 -0.3722 3.90478 0.0521445 -0.492364 3.85288 0.0532125 -0.60469 
3.79653 0.0511131 -0.711298 3.73135 0.0506467 -0.808204 3.66303 0.0527617 -0.897238 
3.59165 0.0489241 -0.976806 3.52097 0.0495581 -1.04881 3.44916 0.0500558 -1.10946 
3.3804 0.0482587 -1.16136 3.31725 0.0460477 -1.20634 3.26049 0.0449104 -1.24412 
[...]
POINT_DATA 5000
SCALARS Speed float
LOOKUP_TABLE default
0.975389 0.975389 0.975389 0.975389 0.975389 0.975389 0.97539 0.97539 0.97539 
0.97539 0.97539 0.975391 0.975392 0.975394 0.975397 0.975401 0.975407 0.975415 
0.975424 0.975434 0.975445 0.975455 0.975464 0.975471 0.975477 0.97548 0.975483 
0.975485 0.975486 0.975486 0.975487 0.975487 0.975487 0.975487 0.975487 0.975487 
0.975487 0.975487 0.975487 0.975487 0.975487 0.975487 0.975487 0.975487 0.975487 
0.975487 0.975488 0.975488 0.975488 0.975489 0.975489 0.975491 0.975493 0.975496 
0.975501 0.975507 0.975515 0.975525 0.975535 0.975546 0.975556 0.975564 0.975571 
0.975575 0.975579 0.975581 0.975582 0.975583 0.975584 0.975584 0.975584 0.975584 
0.975585 0.975585 0.975585 0.975585 0.975585 0.975585 0.975585 0.975585 0.975585 
0.975585 0.975585 0.975585 0.975585 0.975585 0.975585 0.975586 0.975586 0.975587 
0.975589 0.975591 0.975595 0.9756 0.975607 0.975616 0.975626 0.975636 0.975646 
0.975656 0.975664 0.97567 0.975674 0.975677 0.975679 0.97568 0.975681 0.975681 
0.975681 0.975682 0.975682 0.975682 0.975682 0.975682 0.975682 0.975682 0.975682 
0.975682 0.975682 0.975682 0.975682 0.975682 0.975682 0.975682 0.975682 0.975683 
0.975683 0.975684 0.975685 0.975687 0.975689 0.975693 0.975699 0.975707 0.975716 
0.975726 0.975736 0.975747 0.975755 0.975763 0.975768 0.975772 0.975774 0.975776 
0.975777 0.975778 0.975778 0.975778 0.975778 0.975779 0.975779 0.975779 0.975779 
0.975779 0.975779 0.975779 0.975779 0.975779 0.975779 0.975779 0.975779 0.975779 
0.975779 0.975779 0.97578 0.97578 0.975781 0.975782 0.975784 0.975787 0.975792 
0.975798 0.975806 0.975816 0.975826 0.975836 0.975846 0.975854 0.975861 0.975866 
0.975869 0.975872 0.975873 0.975874 0.975874 0.975875 0.975875 0.975875 0.975875 
0.975875 0.975875 0.975875 0.975875 0.975875 0.975875 0.975875 0.975875 0.975875 
0.975875 0.975875 0.975875 0.975876 0.975876 0.975876 0.975877 0.975878 0.975879 
0.975881 0.975885 0.97589 0.975897 0.975905 0.975915 0.975926 0.975936 0.975945 
0.975953 0.975959 0.975963 0.975966 0.975968 0.975969 0.97597 0.975971 0.975971 
0.975971 0.975971 0.975971 0.975971 0.975971 0.975971 0.975971 0.975971 0.975971 
0.975971 0.975971 0.975971 0.975971 0.975972 0.975972 0.975972 0.975972 0.975972 
0.975973 0.975974 0.975976 0.975979 0.975983 0.975988 0.975996 0.976005 0.976015 
0.976025 0.976035 0.976044 0.976051 0.976056 0.97606 0.976063 0.976064 0.976066 
0.976066 0.976067 0.976067 0.976067 0.976067 0.976067 0.976067 0.976067 0.976067 
0.976067 0.976067 0.976067 0.976067 0.976067 0.976067 0.976067 0.976067 0.976067 
0.976068 0.976068 0.976068 0.976069 0.97607 0.976072 0.976076 0.97608 0.976086 
0.976094 0.976104 0.976114 0.976124 0.976134 0.976142 0.976149 0.976153 0.976157 
0.976159 0.97616 0.976161 0.976162 0.976162 0.976162 0.976162 0.976162 0.976162 
0.976163 0.976163 0.976163 0.976163 0.976163 0.976163 0.976163 0.976163 0.976163 
0.976163 0.976163 0.976163 0.976163 0.976164 0.976164 0.976165 0.976166 0.976169 
0.976172 0.976177 0.976184 0.976193 0.976202 0.976213 0.976223 0.976232 0.97624 
0.976246 0.97625 0.976253 0.976255 0.976256 0.976257 0.976257 0.976257 0.976257 
0.976258 0.976258 0.976258 0.976258 0.976258 0.976258 0.976258 0.976258 0.976258 
0.976258 0.976258 0.976258 0.976258 0.976258 0.976258 0.976258 0.976259 0.976259 
0.976261 0.976262 0.976265 0.976269 0.976275 0.976282 0.976291 0.976301 0.976311 
0.976321 0.97633 0.976337 0.976342 0.976346 0.976348 0.97635 0.976351 0.976351 
0.976352 0.976352 0.976352 0.976352 0.976352 0.976352 0.976352 0.976353 0.976353 
0.976353 0.976353 0.976353 0.976353 0.976353 0.976353 0.976353 0.976353 0.976353 
0.976353 0.976354 0.976355 0.976356 0.976358 0.976361 0.976365 0.976372 0.97638 
0.976389 0.976399 0.976409 0.976419 0.976427 0.976433 0.976438 0.976441 0.976443 
0.976445 0.976446 0.976446 0.976446 0.976447 0.976447 0.976447 0.976447 0.976447 
0.976447 0.976447 0.976447 0.976447 0.976447 0.976447 0.976447 0.976447 0.976447 
0.976447 0.976447 0.976448 0.976448 0.976448 0.976449 0.976451 0.976453 0.976457 
0.976462 0.976469 0.976477 0.976487 0.976497 0.976507 0.976516 0.976523 0.976529 
0.976533 0.976536 0.976538 0.976539 0.97654 0.97654 0.976541 0.976541 0.976541 
0.976541 0.976541 0.976541 0.976541 0.976541 0.976541 0.976541 0.976541 0.976541 
0.976541 0.976541 0.976541 0.976541 0.976542 0.976542 0.976542 0.976543 0.976544 
0.976546 0.976548 0.976552 0.976558 0.976565 0.976574 0.976584 0.976595 0.976604 
0.976613 0.97662 0.976625 0.976628 0.976631 0.976632 0.976633 0.976634 0.976634 
0.976634 0.976635 0.976635 0.976635 0.976635 0.976635 0.976635 0.976635 0.976635 
0.976635 0.976635 0.976635 0.976635 0.976635 0.976635 0.976635 0.976635 0.976636 
0.976636 0.976637 0.976638 0.97664 0.976643 0.976648 0.976654 0.976662 0.976671 
0.976682 0.976692 0.976701 0.976709 0.976715 0.97672 0.976723 0.976725 0.976726 
0.976727 0.976727 0.976728 0.976728 0.976728 0.976728 0.976728 0.976728 0.976728 
0.976728 0.976728 0.976728 0.976728 0.976728 0.976728 0.976728 0.976728 0.976729 
0.976729 0.976729 0.976729 0.97673 0.976731 0.976732 0.976735 0.976738 0.976743 
0.97675 0.976759 0.976768 0.976779 0.976788 0.976797 0.976804 0.97681 0.976814 
0.976817 0.976819 0.97682 0.97682 0.976821 0.976821 0.976821 0.976821 0.976821 
0.976821 0.976821 0.976821 0.976821 0.976821 0.976821 0.976821 0.976821 0.976822 
0.976822 0.976822 0.976822 0.976822 0.976822 0.976823 0.976823 0.976824 0.976826 
0.976829 0.976833 0.976839 0.976846 0.976855 0.976865 0.976875 0.976885 0.976893 
0.9769 0.976905 0.976908 0.97691 0.976912 0.976913 0.976913 0.976914 0.976914 
0.976914 0.976914 0.976914 0.976914 0.976914 0.976914 0.976914 0.976914 0.976914 
0.976914 0.976914 0.976914 0.976914 0.976914 0.976915 0.976915 0.976915 0.976916 
0.976916 0.976918 0.97692 0.976923 0.976928 0.976934 0.976942 0.976951 0.976961 
0.976971 0.97698 0.976988 0.976994 0.976998 0.977001 0.977003 0.977005 0.977005 
0.977006 0.977006 0.977006 0.977006 0.977006 0.977007 0.977007 0.977007 0.977007 
0.977007 0.977007 0.977007 0.977007 0.977007 0.977007 0.977007 0.977007 0.977007 
0.977007 0.977008 0.977008 0.977009 0.977011 0.977013 0.977017 0.977022 0.977029 
0.977038 0.977047 0.977057 0.977067 0.977076 0.977083 0.977088 0.977092 0.977094 
0.977096 0.977097 0.977098 0.977098 0.977098 0.977098 0.977099 0.977099 0.977099 
0.977099 0.977099 0.977099 0.977099 0.977099 0.977099 0.977099 0.977099 0.977099 
0.977099 0.977099 0.977099 0.977099 0.9771 0.977101 0.977102 0.977104 0.977107 
0.977111 0.977117 0.977124 0.977133 0.977143 0.977153 0.977162 0.97717 0.977177 
0.977181 0.977185 0.977187 0.977188 0.977189 0.97719 0.97719 0.97719 0.97719 
0.97719 0.97719 0.97719 0.97719 0.97719 0.977191 0.977191 0.977191 0.977191 
0.977191 0.977191 0.977191 0.977191 0.977191 0.977191 0.977191 0.977192 0.977193 
0.977194 0.977196 0.9772 0.977205 0.977211 0.977219 0.977229 0.977238 0.977248 
0.977257 0.977265 0.97727 0.977274 0.977277 0.977279 0.97728 0.977281 0.977281 
0.977282 0.977282 0.977282 0.977282 0.977282 0.977282 0.977282 0.977282 0.977282 
0.977282 0.977282 0.977282 0.977282 0.977282 0.977282 0.977282 0.977282 0.977283 
0.977283 0.977284 0.977285 0.977286 0.977289 0.977293 0.977298 0.977305 0.977314 
0.977324 0.977334 0.977343 0.977351 0.977358 0.977363 0.977367 0.977369 0.977371 
0.977372 0.977372 0.977373 0.977373 0.977373 0.977373 0.977373 0.977373 0.977373 
0.977373 0.977373 0.977373 0.977373 0.977373 0.977373 0.977373 0.977373 0.977373 
0.977373 0.977374 0.977374 0.977374 0.977375 0.977376 0.977378 0.977381 0.977386 
0.977392 0.9774 0.977409 0.977418 0.977428 0.977437 0.977445 0.977451 0.977455 
0.977459 0.977461 0.977462 0.977463 0.977463 0.977463 0.977464 0.977464 0.977464 
0.977464 0.977464 0.977464 0.977464 0.977464 0.977464 0.977464 0.977464 0.977464 
0.977464 0.977464 0.977464 0.977464 0.977464 0.977465 0.977465 0.977466 0.977468 
0.97747 0.977474 0.977479 0.977485 0.977494 0.977503 0.977513 0.977523 0.977531 
0.977538 0.977543 0.977547 0.97755 0.977552 0.977553 0.977553 0.977554 0.977554 
0.977554 0.977554 0.977554 0.977554 0.977554 0.977554 0.977554 0.977554 0.977554 
0.977554 0.977554 0.977555 0.977555 0.977555 0.977555 0.977555 0.977555 0.977556 
0.977556 0.977557 0.977559 0.977562 0.977566 0.977572 0.977579 0.977588 0.977597 
0.977607 0.977616 0.977624 0.977631 0.977635 0.977639 0.977641 0.977642 0.977643 
0.977644 0.977644 0.977644 0.977644 0.977644 0.977644 0.977644 0.977644 0.977645 
0.977645 0.977645 0.977645 0.977645 0.977645 0.977645 0.977645 0.977645 0.977645 
0.977645 0.977645 0.977646 0.977647 0.977648 0.97765 0.977653 0.977658 0.977664 
0.977672 0.977681 0.977691 0.977701 0.97771 0.977717 0.977723 0.977727 0.977729 
0.977731 0.977732 0.977733 0.977734 0.977734 0.977734 0.977734 0.977734 0.977734 
0.977734 0.977734 0.977734 0.977734 0.977734 0.977734 0.977734 0.977734 0.977734 
0.977735 0.977735 0.977735 0.977735 0.977735 0.977736 0.977737 0.977739 0.977741 
0.977745 0.97775 0.977757 0.977766 0.977775 0.977785 0.977794 0.977802 0.977809 
0.977814 0.977817 0.97782 0.977821 0.977822 0.977823 0.977823 0.977823 0.977824 
0.977824 0.977824 0.977824 0.977824 0.977824 0.977824 0.977824 0.977824 0.977824 
0.977824 0.977824 0.977824 0.977824 0.977824 0.977824 0.977825 0.977825 0.977826 
0.977827 0.977829 0.977832 0.977836 0.977842 0.97785 0.977859 0.977868 0.977878 
0.977887 0.977894 0.9779 0.977905 0.977908 0.97791 0.977911 0.977912 0.977912 
0.977912 0.977913 0.977913 0.977913 0.977913 0.977913 0.977913 0.977913 0.977913 
0.977913 0.977913 0.977913 0.977913 0.977913 0.977913 0.977913 0.977913 0.977914 
0.977914 0.977914 0.977915 0.977917 0.977919 0.977923 0.977928 0.977934 0.977942 
0.977952 0.977961 0.977971 0.977979 0.977986 0.977991 0.977995 0.977998 0.977999 
0.978 0.978001 0.978001 0.978001 0.978002 0.978002 0.978002 0.978002 0.978002 
0.978002 0.978002 0.978002 0.978002 0.978002 0.978002 0.978002 0.978002 0.978002 
0.978002 0.978002 0.978003 0.978003 0.978004 0.978005 0.978007 0.978009 0.978013 
0.978019 0.978026 0.978035 0.978044 0.978054 0.978063 0.978071 0.978077 0.978082 
0.978085 0.978087 0.978088 0.978089 0.97809 0.97809 0.97809 0.97809 0.97809 
0.97809 0.97809 0.97809 0.97809 0.97809 0.97809 0.97809 0.97809 0.97809 
0.97809 0.978091 0.978091 0.978091 0.978091 0.978091 0.978092 0.978093 0.978094 
0.978096 0.978099 0.978104 0.97811 0.978118 0.978127 0.978137 0.978146 0.978155 
0.978162 0.978167 0.978171 0.978174 0.978176 0.978177 0.978177 0.978178 0.978178 
0.978178 0.978178 0.978178 0.978179 0.978179 0.978179 0.978179 0.978179 0.978179 
0.978179 0.978179 0.978179 0.978179 0.978179 0.978179 0.978179 0.978179 0.97818 
0.97818 0.978181 0.978183 0.978185 0.978189 0.978195 0.978201 0.97821 0.978219 
0.978229 0.978238 0.978246 0.978252 0.978257 0.97826 0.978263 0.978264 0.978265 
0.978266 0.978266 0.978266 0.978266 0.978266 0.978266 0.978266 0.978266 0.978266 
0.978266 0.978266 0.978266 0.978266 0.978267 0.978267 0.978267 0.978267 0.978267 
0.978267 0.978267 0.978268 0.978269 0.97827 0.978272 0.978275 0.978279 0.978285 
0.978293 0.978301 0.978311 0.97832 0.978329 0.978336 0.978342 0.978346 0.978349 
0.978351 0.978352 0.978353 0.978353 0.978354 0.978354 0.978354 0.978354 0.978354 
0.978354 0.978354 0.978354 0.978354 0.978354 0.978354 0.978354 0.978354 0.978354 
0.978354 0.978354 0.978354 0.978355 0.978355 0.978356 0.978356 0.978358 0.97836 
0.978364 0.978369 0.978376 0.978384 0.978393 0.978402 0.978412 0.97842 0.978426 
0.978431 0.978435 0.978437 0.978439 0.97844 0.97844 0.978441 0.978441 0.978441 
0.978441 0.978441 0.978441 0.978441 0.978441 0.978441 0.978441 0.978441 0.978441 
0.978441 0.978441 0.978441 0.978441 0.978442 0.978442 0.978442 0.978442 0.978443 
0.978444 0.978446 0.978449 0.978453 0.978459 0.978466 0.978475 0.978484 0.978494 
0.978502 0.97851 0.978516 0.97852 0.978523 0.978525 0.978526 0.978527 0.978527 
0.978528 0.978528 0.978528 0.978528 0.978528 0.978528 0.978528 0.978528 0.978528 
0.978528 0.978528 0.978528 0.978528 0.978528 0.978528 0.978528 0.978529 0.978529 
0.978529 0.97853 0.978531 0.978532 0.978534 0.978538 0.978542 0.978549 0.978557 
0.978566 0.978575 0.978584 0.978592 0.978599 0.978604 0.978608 0.978611 0.978612 
0.978613 0.978614 0.978614 0.978614 0.978615 0.978615 0.978615 0.978615 0.978615 
0.978615 0.978615 0.978615 0.978615 0.978615 0.978615 0.978615 0.978615 0.978615 
0.978615 0.978615 0.978615 0.978616 0.978617 0.978618 0.978619 0.978622 0.978626 
0.978631 0.978638 0.978647 0.978656 0.978666 0.978674 0.978682 0.978688 0.978692 
0.978696 0.978698 0.978699 0.9787 0.9787 0.978701 0.978701 0.978701 0.978701 
0.978701 0.978701 0.978701 0.978701 0.978701 0.978701 0.978701 0.978701 0.978701 
0.978701 0.978701 0.978701 0.978701 0.978702 0.978702 0.978702 0.978703 0.978705 
0.978707 0.97871 0.978714 0.978721 0.978728 0.978737 0.978746 0.978756 0.978764 
0.978771 0.978776 0.97878 0.978783 0.978784 0.978785 0.978786 0.978786 0.978787 
0.978787 0.978787 0.978787 0.978787 0.978787 0.978787 0.978787 0.978787 0.978787 
0.978787 0.978787 0.978787 0.978787 0.978787 0.978787 0.978787 0.978788 0.978788 
0.978789 0.97879 0.978791 0.978794 0.978798 0.978803 0.97881 0.978818 0.978827 
0.978836 0.978845 0.978853 0.978859 0.978864 0.978867 0.978869 0.978871 0.978871 
0.978872 0.978872 0.978872 0.978873 0.978873 0.978873 0.978873 0.978873 0.978873 
0.978873 0.978873 0.978873 0.978873 0.978873 0.978873 0.978873 0.978873 0.978873 
0.978873 0.978874 0.978874 0.978875 0.978876 0.978878 0.978881 0.978885 0.978891 
0.978899 0.978907 0.978917 0.978926 0.978934 0.978941 0.978947 0.978951 0.978953 
0.978955 0.978956 0.978957 0.978957 0.978958 0.978958 0.978958 0.978958 0.978958 
0.978958 0.978958 0.978958 0.978958 0.978958 0.978958 0.978958 0.978958 0.978958 
0.978958 0.978958 0.978958 0.978959 0.978959 0.97896 0.978961 0.978962 0.978965 
0.978968 0.978973 0.97898 0.978988 0.978997 0.979006 0.979015 0.979023 0.979029 
0.979034 0.979037 0.979039 0.979041 0.979042 0.979042 0.979043 0.979043 0.979043 
0.979043 0.979043 0.979043 0.979043 0.979043 0.979043 0.979043 0.979043 0.979043 
0.979043 0.979043 0.979043 0.979043 0.979043 0.979044 0.979044 0.979044 0.979045 
0.979046 0.979048 0.979051 0.979055 0.979061 0.979068 0.979077 0.979086 0.979095 
0.979104 0.979111 0.979116 0.97912 0.979123 0.979125 0.979126 0.979127 0.979127 
0.979127 0.979128 0.979128 0.979128 0.979128 0.979128 0.979128 0.979128 0.979128 
0.979128 0.979128 0.979128 0.979128 0.979128 0.979128 0.979128 0.979128 0.979128 
0.979129 0.979129 0.97913 0.979132 0.979134 0.979138 0.979142 0.979149 0.979157 
0.979166 0.979175 0.979184 0.979192 0.979198 0.979203 0.979206 0.979208 0.97921 
0.979211 0.979211 0.979212 0.979212 0.979212 0.979212 0.979212 0.979212 0.979212 
0.979212 0.979212 0.979212 0.979212 0.979212 0.979212 0.979212 0.979212 0.979213 
0.979213 0.979213 0.979213 0.979213 0.979214 0.979215 0.979217 0.97922 0.979224 
0.97923 0.979237 0.979245 0.979254 0.979263 0.979272 0.979279 0.979284 0.979289 
0.979291 0.979293 0.979294 0.979295 0.979296 0.979296 0.979296 0.979296 0.979296 
0.979296 0.979296 0.979296 0.979296 0.979296 0.979296 0.979296 0.979296 0.979297 
0.979297 0.979297 0.979297 0.979297 0.979297 0.979297 0.979298 0.979299 0.9793 
0.979302 0.979306 0.97931 0.979317 0.979324 0.979333 0.979342 0.979351 0.979359 
0.979366 0.97937 0.979374 0.979376 0.979378 0.979379 0.979379 0.97938 0.97938 
0.97938 0.97938 0.97938 0.97938 0.97938 0.97938 0.97938 0.97938 0.97938 
0.97938 0.97938 0.97938 0.97938 0.97938 0.97938 0.979381 0.979381 0.979381 
0.979382 0.979383 0.979385 0.979388 0.979392 0.979397 0.979404 0.979412 0.979421 
0.97943 0.979439 0.979446 0.979452 0.979456 0.979459 0.979461 0.979462 0.979463 
0.979463 0.979463 0.979463 0.979464 0.979464 0.979464 0.979464 0.979464 0.979464 
0.979464 0.979464 0.979464 0.979464 0.979464 0.979464 0.979464 0.979464 0.979464 
0.979464 0.979465 0.979465 0.979466 0.979467 0.979469 0.979473 0.979477 0.979483 
0.979491 0.9795 0.979509 0.979518 0.979526 0.979532 0.979537 0.97954 0.979543 
0.979544 0.979545 0.979546 0.979546 0.979546 0.979547 0.979547 0.979547 0.979547 
0.979547 0.979547 0.979547 0.979547 0.979547 0.979547 0.979547 0.979547 0.979547 
0.979547 0.979547 0.979547 0.979548 0.979548 0.979549 0.97955 0.979551 0.979554 
0.979558 0.979563 0.97957 0.979578 0.979587 0.979596 0.979605 0.979612 0.979617 
0.979622 0.979625 0.979627 0.979628 0.979629 0.979629 0.979629 0.979629 0.97963 
0.97963 0.97963 0.97963 0.97963 0.97963 0.97963 0.97963 0.97963 0.97963 
0.97963 0.97963 0.97963 0.97963 0.97963 0.97963 0.979631 0.979631 0.979632 
0.979633 0.979635 0.979639 0.979643 0.979649 0.979657 0.979665 0.979674 0.979683 
0.979691 0.979697 0.979702 0.979706 0.979708 0.97971 0.979711 0.979711 0.979712 
0.979712 0.979712 0.979712 0.979712 0.979712 0.979712 0.979712 0.979712 0.979712 
0.979712 0.979712 0.979712 0.979712 0.979712 0.979713 0.979713 0.979713 0.979713 
0.979713 0.979714 0.979715 0.979717 0.979719 0.979723 0.979728 0.979735 0.979743 
0.979752 0.979761 0.979769 0.979776 0.979782 0.979786 0.979789 0.979791 0.979793 
0.979793 0.979794 0.979794 0.979794 0.979794 0.979795 0.979795 0.979795 0.979795 
0.979795 0.979795 0.979795 0.979795 0.979795 0.979795 0.979795 0.979795 0.979795 
0.979795 0.979795 0.979795 0.979796 0.979797 0.979798 0.9798 0.979803 0.979808 
0.979814 0.979821 0.979829 0.979838 0.979847 0.979855 0.979861 0.979866 0.97987 
0.979872 0.979874 0.979875 0.979876 0.979876 0.979876 0.979876 0.979876 0.979876 
0.979877 0.979877 0.979877 0.979877 0.979877 0.979877 0.979877 0.979877 0.979877 
0.979877 0.979877 0.979877 0.979877 0.979877 0.979878 0.979878 0.979879 0.979881 
0.979883 0.979887 0.979892 0.979899 0.979907 0.979916 0.979925 0.979933 0.97994 
0.979946 0.97995 0.979953 0.979955 0.979956 0.979957 0.979957 0.979958 0.979958 
0.979958 0.979958 0.979958 0.979958 0.979958 0.979958 0.979958 0.979958 0.979958 
0.979958 0.979958 0.979958 0.979958 0.979958 0.979959 0.979959 0.979959 0.97996 
0.97996 0.979962 0.979964 0.979967 0.979971 0.979977 0.979984 0.979993 0.980002 
0.98001 0.980018 0.980025 0.980029 0.980033 0.980035 0.980037 0.980038 0.980039 
0.980039 0.980039 0.980039 0.980039 0.980039 0.98004 0.98004 0.98004 0.98004 
0.98004 0.98004 0.98004 0.98004 0.98004 0.98004 0.98004 0.98004 0.98004 
0.98004 0.980041 0.980041 0.980042 0.980044 0.980046 0.98005 0.980055 0.980062 
0.98007 0.980078 0.980087 0.980095 0.980103 0.980108 0.980112 0.980115 0.980117 
0.980119 0.980119 0.98012 0.98012 0.98012 0.98012 0.980121 0.980121 0.980121 
0.980121 0.980121 0.980121 0.980121 0.980121 0.980121 0.980121 0.980121 0.980121 
0.980121 0.980121 0.980121 0.980121 0.980122 0.980123 0.980124 0.980126 0.980129 
0.980133 0.980139 0.980146 0.980155 0.980164 0.980172 0.98018 0.980186 0.980191 
0.980195 0.980197 0.980199 0.9802 0.9802 0.980201 0.980201 0.980201 0.980201 
0.980201 0.980201 0.980201 0.980201 0.980201 0.980201 0.980201 0.980201 0.980201 
0.980202 0.980202 0.980202 0.980202 0.980202 0.980202 0.980202 0.980203 0.980204 
0.980206 0.980208 0.980212 0.980217 0.980223 0.980231 0.98024 0.980249 0.980257 
0.980264 0.98027 0.980274 0.980277 0.980279 0.98028 0.980281 0.980281 0.980281 
0.980282 0.980282 0.980282 0.980282 0.980282 0.980282 0.980282 0.980282 0.980282 
0.980282 0.980282 0.980282 0.980282 0.980282 0.980282 0.980282 0.980282 0.980283 
0.980283 0.980284 0.980285 0.980287 0.98029 0.980295 0.9803 0.980308 0.980316 
0.980325 0.980333 0.980341 0.980347 0.980352 0.980356 0.980358 0.98036 0.980361 
0.980361 0.980361 0.980362 0.980362 0.980362 0.980362 0.980362 0.980362 0.980362 
0.980362 0.980362 0.980362 0.980362 0.980362 0.980362 0.980362 0.980362 0.980362 
0.980362 0.980363 0.980363 0.980364 0.980365 0.980366 0.980369 0.980372 0.980377 
0.980384 0.980392 0.9804 0.980409 0.980417 0.980424 0.98043 0.980434 0.980437 
0.980439 0.98044 0.980441 0.980441 0.980441 0.980442 0.980442 0.980442 0.980442 
0.980442 0.980442 0.980442 0.980442 0.980442 0.980442 0.980442 0.980442 0.980442 